10
Geom 0 step
N         -1.2153357364          0.0345063959         -1.2605081735
N          1.1737486933         -0.0575536644         -1.2945480443
C          2.6142278745          0.0708888871          1.0419962629
H          1.7892463411          1.7927718192          2.2388985710
H          2.0049490901         -1.3371357812          2.4308656662
H          4.5653910558         -0.2686505078          0.9593075693
C         -2.5411341258         -0.0431657774          1.0474450078
H         -1.5979053092          1.3423706840          2.3376789393
H         -4.5708432019          0.4308759976          0.7959085082
H         -2.4839424781         -1.9703180598          1.8447446710
